LAMMPS data file    
      
3000 atoms     
2000 bonds     
1000 angles     
0 dihedrals     
0 impropers     
3 atom types    
2 bond types    
1 angle types    
0 dihedral types    
0 improper types    
      
0 30 xlo xhi    
0 30 ylo yhi    
0 30 zlo zhi    
      
Masses      
      
1 1.008     
2 1.008     
3 15.999     
      
Bond Coeffs     
      
1 1000 1  
2 1000 1   
      
Angle Coeffs     
      
1 100 109.47   
      
Atoms      
      
1 1 1 0.4238 4.735545 9.116674 26.025095
2 1 2 0.4238 6.103811 9.875732 26.492549
3 1 3 -0.8476 5.595585 9.517549 25.709269
4 2 1 0.4238 19.574996 25.227718 25.631068
5 2 2 0.4238 20.299711 23.795244 25.331661
6 2 3 -0.8476 20.452083 24.773072 25.475722
7 3 1 0.4238 1.513908 7.044236 3.694603
8 3 2 0.4238 1.497244 8.514312 2.983665
9 3 3 -0.8476 2.063355 7.849352 3.470967
10 4 1 0.4238 22.803789 16.023048 2.345599
11 4 2 0.4238 24.279931 15.77016 2.996667
12 4 3 -0.8476 23.300754 15.828623 3.191378
13 5 1 0.4238 26.137136 8.840584 25.569216
14 5 2 0.4238 27.02798 9.732098 24.530738
15 5 3 -0.8476 26.556119 8.860088 24.661367
16 6 1 0.4238 4.126121 5.947186 5.904201
17 6 2 0.4238 3.199733 4.668635 6.321272
18 6 3 -0.8476 4.104541 5.085112 6.410638
19 7 1 0.4238 4.283895 11.791343 16.598927
20 7 2 0.4238 3.751139 13.189187 17.253937
21 7 3 -0.8476 4.253653 12.784949 16.489615
22 8 1 0.4238 28.187256 27.169686 4.099401
23 8 2 0.4238 27.389566 26.459304 5.334667
24 8 3 -0.8476 27.499562 26.484983 4.341007
25 9 1 0.4238 3.242601 12.907713 23.714947
26 9 2 0.4238 4.740599 12.347786 24.045587
27 9 3 -0.8476 3.777758 12.311427 24.313418
28 10 1 0.4238 25.853505 5.870551 14.528865
29 10 2 0.4238 25.661523 7.44274 14.92661
30 10 3 -0.8476 26.024063 6.812622 14.239853
31 11 1 0.4238 24.921189 10.250542 7.099472
32 11 2 0.4238 25.69748 8.909399 7.61478
33 11 3 -0.8476 24.938314 9.251377 7.060852
34 12 1 0.4238 9.456942 15.343821 8.873345
35 12 2 0.4238 9.748794 13.747188 8.693291
36 12 3 -0.8476 9.035845 14.439142 8.807403
37 13 1 0.4238 3.459772 6.460847 21.393392
38 13 2 0.4238 3.957958 6.055244 22.89477
39 13 3 -0.8476 4.138843 6.64145 22.104984
40 14 1 0.4238 17.960322 13.414764 14.540561
41 14 2 0.4238 18.497133 14.941256 14.320348
42 14 3 -0.8476 17.934877 14.209787 13.93442
43 15 1 0.4238 7.631332 19.107929 2.873071
44 15 2 0.4238 8.513826 18.719362 1.555097
45 15 3 -0.8476 7.668628 18.532558 2.055958
46 16 1 0.4238 28.502063 10.536497 10.846248
47 16 2 0.4238 28.501175 9.692168 12.244083
48 16 3 -0.8476 28.140172 10.499871 11.777811
49 17 1 0.4238 2.235545 1.535423 26.178869
50 17 2 0.4238 1.670106 2.371761 24.89526
51 17 3 -0.8476 2.255124 2.415946 25.705149
52 18 1 0.4238 17.080417 11.781528 15.721912
53 18 2 0.4238 16.1128 13.096696 15.692127
54 18 3 -0.8476 16.134031 12.100321 15.775215
55 19 1 0.4238 5.41704 21.094474 13.97804
56 19 2 0.4238 4.217371 20.288348 14.738166
57 19 3 -0.8476 5.137107 20.210737 14.353224
58 20 1 0.4238 14.240222 6.11667 1.665762
59 20 2 0.4238 12.651616 5.77723 1.49859
60 20 3 -0.8476 13.334893 6.50747 1.499114
61 21 1 0.4238 25.804535 3.743316 12.631898
62 21 2 0.4238 26.779547 5.052165 12.576199
63 21 3 -0.8476 25.830633 4.742999 12.640196
64 22 1 0.4238 7.700488 15.509308 18.544386
65 22 2 0.4238 9.305303 15.811631 18.546992
66 22 3 -0.8476 8.395998 16.227903 18.546433
67 23 1 0.4238 9.699655 23.459638 16.671675
68 23 2 0.4238 10.319824 22.610035 15.422514
69 23 3 -0.8476 9.644727 22.601982 16.160279
70 24 1 0.4238 18.630625 1.49588 15.976802
71 24 2 0.4238 19.404658 2.784876 16.614138
72 24 3 -0.8476 19.52587 1.902413 16.159512
73 25 1 0.4238 3.767335 28.483187 23.522156
74 25 2 0.4238 4.329257 27.586085 22.278658
75 25 3 -0.8476 4.236166 28.514178 22.639346
76 26 1 0.4238 22.345647 23.759645 26.808042
77 26 2 0.4238 22.766661 25.245125 27.339955
78 26 3 -0.8476 22.006735 24.674208 27.029014
79 27 1 0.4238 12.306365 21.816168 18.54968
80 27 2 0.4238 13.515878 22.499567 19.408097
81 27 3 -0.8476 12.582547 22.143265 19.453477
82 28 1 0.4238 6.199746 14.198084 13.027577
83 28 2 0.4238 5.089173 15.395247 13.011294
84 28 3 -0.8476 5.221127 14.404044 13.026199
85 29 1 0.4238 2.708567 16.414467 22.756409
86 29 2 0.4238 1.673642 17.309443 23.647914
87 29 3 -0.8476 1.754387 16.52298 23.035482
88 30 1 0.4238 12.682167 12.854557 14.537228
89 30 2 0.4238 13.960991 12.642432 15.530428
90 30 3 -0.8476 13.67368 12.952019 14.623937
91 31 1 0.4238 2.141112 16.23381 1.716687
92 31 2 0.4238 3.682471 16.287028 2.253545
93 31 3 -0.8476 3.101412 16.144454 1.452196
94 32 1 0.4238 5.843653 11.858269 11.406086
95 32 2 0.4238 4.21974 11.695776 11.463846
96 32 3 -0.8476 5.076975 11.245751 11.213361
97 33 1 0.4238 21.521693 7.503073 13.276649
98 33 2 0.4238 20.941637 7.826068 14.768642
99 33 3 -0.8476 21.742986 7.886451 14.173403
100 34 1 0.4238 7.535991 18.453597 21.11356
101 34 2 0.4238 7.621641 16.830143 21.268152
102 34 3 -0.8476 7.194655 17.580965 20.764102
103 35 1 0.4238 24.65552 21.73209 16.976591
104 35 2 0.4238 23.818849 21.286738 18.306432
105 35 3 -0.8476 23.743064 21.649041 17.377394
106 36 1 0.4238 22.740323 18.965619 4.01719
107 36 2 0.4238 21.480523 19.065651 5.051469
108 36 3 -0.8476 22.319694 19.512452 4.74118
109 37 1 0.4238 25.535344 11.115116 27.74849
110 37 2 0.4238 26.964865 10.463585 27.302607
111 37 3 -0.8476 26.009145 10.264648 27.519725
112 38 1 0.4238 19.99615 19.934476 16.928282
113 38 2 0.4238 20.244366 18.320696 16.897673
114 38 3 -0.8476 20.686946 19.213421 16.983012
115 39 1 0.4238 5.864054 11.957055 19.535239
116 39 2 0.4238 4.867572 13.235258 19.335091
117 39 3 -0.8476 5.384502 12.699629 20.002926
118 40 1 0.4238 6.003894 14.309563 3.11006
119 40 2 0.4238 5.641207 15.156834 1.761941
120 40 3 -0.8476 5.298927 14.849341 2.649865
121 41 1 0.4238 23.295822 11.994152 6.944068
122 41 2 0.4238 21.914295 11.14032 6.773215
123 41 3 -0.8476 22.890106 11.080958 6.983896
124 42 1 0.4238 8.82593 13.95489 17.468886
125 42 2 0.4238 8.515486 15.246259 16.518714
126 42 3 -0.8476 8.804734 14.288975 16.52652
127 43 1 0.4238 24.934334 18.814253 3.988867
128 43 2 0.4238 25.636361 17.389508 3.609263
129 43 3 -0.8476 25.163863 17.901423 4.326764
130 44 1 0.4238 8.846941 27.522602 14.500342
131 44 2 0.4238 7.899732 26.585599 13.556067
132 44 3 -0.8476 8.644834 26.583237 14.223102
133 45 1 0.4238 7.281674 19.932296 13.888153
134 45 2 0.4238 6.74896 18.738126 14.866423
135 45 3 -0.8476 7.434783 19.45737 14.754825
136 46 1 0.4238 17.994075 26.059448 3.389057
137 46 2 0.4238 18.865817 27.407529 3.688355
138 46 3 -0.8476 18.882776 26.407614 3.687566
139 47 1 0.4238 4.994384 4.454591 14.950973
140 47 2 0.4238 4.219985 5.297996 16.115366
141 47 3 -0.8476 4.127453 4.569996 15.435975
142 48 1 0.4238 5.665709 28.3959 28.365466
143 48 2 0.4238 4.088164 27.995916 28.500371
144 48 3 -0.8476 5.020203 27.636828 28.450594
145 49 1 0.4238 8.039185 5.674029 25.921276
146 49 2 0.4238 7.691068 4.093788 26.14148
147 49 3 -0.8476 8.427068 4.769509 26.098776
148 50 1 0.4238 14.809535 7.740083 24.576338
149 50 2 0.4238 14.253532 9.27063 24.699309
150 50 3 -0.8476 15.037266 8.671076 24.861832
151 51 1 0.4238 28.500454 24.225717 1.49988
152 51 2 0.4238 27.736888 25.147734 2.610596
153 51 3 -0.8476 27.671706 24.321191 2.051403
154 52 1 0.4238 13.52595 5.242376 21.97314
155 52 2 0.4238 14.440615 5.393449 23.317536
156 52 3 -0.8476 13.834646 4.783736 22.80649
157 53 1 0.4238 28.524508 11.460068 6.392296
158 53 2 0.4238 28.50458 13.092715 6.362248
159 53 3 -0.8476 27.938923 12.26854 6.332467
160 54 1 0.4238 10.092907 1.499942 3.39995
161 54 2 0.4238 9.16531 2.774295 2.972838
162 54 3 -0.8476 10.082102 2.489015 3.252527
163 55 1 0.4238 13.257848 15.047567 15.148087
164 55 2 0.4238 13.2744 16.434526 14.286167
165 55 3 -0.8476 12.688765 15.748924 14.718716
166 56 1 0.4238 4.010472 8.050338 1.505109
167 56 2 0.4238 2.784866 6.974158 1.586118
168 56 3 -0.8476 3.778585 7.078304 1.543775
169 57 1 0.4238 10.838999 23.381104 7.051579
170 57 2 0.4238 12.354644 23.282225 6.451677
171 57 3 -0.8476 11.698728 23.874627 6.919601
172 58 1 0.4238 18.305139 3.648971 19.18882
173 58 2 0.4238 17.242152 4.001166 20.377454
174 58 3 -0.8476 17.82688 4.387562 19.664076
175 59 1 0.4238 22.841748 25.539618 20.498579
176 59 2 0.4238 22.795695 26.335513 21.923804
177 59 3 -0.8476 22.519767 25.502212 21.444648
178 60 1 0.4238 18.315315 20.837625 20.661918
179 60 2 0.4238 19.245414 19.876091 19.725326
180 60 3 -0.8476 19.115364 20.808537 20.062592
181 61 1 0.4238 25.083885 9.900195 13.534954
182 61 2 0.4238 23.635656 9.282242 13.968085
183 61 3 -0.8476 24.621279 9.114423 13.945653
184 62 1 0.4238 1.837955 28.500013 20.897538
185 62 2 0.4238 2.79817 27.187336 20.750226
186 62 3 -0.8476 2.776067 28.18715 20.748617
187 63 1 0.4238 17.12695 5.556624 3.046175
188 63 2 0.4238 16.202915 5.128252 1.76966
189 63 3 -0.8476 16.363381 5.831882 2.461956
190 64 1 0.4238 5.086445 28.440815 15.233928
191 64 2 0.4238 4.711373 26.854472 15.135572
192 64 3 -0.8476 4.844725 27.62484 15.759165
193 65 1 0.4238 9.684548 3.497639 27.378842
194 65 2 0.4238 9.759868 1.868614 27.292592
195 65 3 -0.8476 9.147037 2.654314 27.377626
196 66 1 0.4238 22.589141 11.526579 9.362575
197 66 2 0.4238 22.010864 10.599711 10.57639
198 66 3 -0.8476 21.838418 11.407387 10.01244
199 67 1 0.4238 6.696899 1.571811 19.41578
200 67 2 0.4238 8.137759 2.267048 19.743503
201 67 3 -0.8476 7.688162 1.480548 19.319949
202 68 1 0.4238 13.089608 22.841959 16.76859
203 68 2 0.4238 11.851151 23.906406 16.772094
204 68 3 -0.8476 12.09934 22.94281 16.672082
205 69 1 0.4238 1.499718 17.927597 18.024049
206 69 2 0.4238 1.499163 19.560605 18.013031
207 69 3 -0.8476 2.076855 18.744297 18.018543
208 70 1 0.4238 13.919473 3.640335 9.657959
209 70 2 0.4238 13.282043 3.350942 11.133348
210 70 3 -0.8476 13.400737 4.036941 10.41541
211 71 1 0.4238 4.594656 11.921455 9.176328
212 71 2 0.4238 4.195896 13.504712 9.209877
213 71 3 -0.8476 4.945828 12.853914 9.090793
214 72 1 0.4238 13.488515 11.135039 10.261253
215 72 2 0.4238 14.809802 10.754827 9.380074
216 72 3 -0.8476 13.819516 10.639326 9.458244
217 73 1 0.4238 11.317534 27.015972 9.447237
218 73 2 0.4238 11.750284 25.745015 10.376876
219 73 3 -0.8476 11.071838 26.468181 10.247033
220 74 1 0.4238 1.496117 16.916499 27.144886
221 74 2 0.4238 2.22075 16.657123 25.704585
222 74 3 -0.8476 1.88695 16.221903 26.540814
223 75 1 0.4238 21.173008 7.608667 3.172786
224 75 2 0.4238 21.608726 7.393444 4.731845
225 75 3 -0.8476 21.000618 7.078517 4.00305
226 76 1 0.4238 16.73582 23.371057 4.460648
227 76 2 0.4238 15.760567 22.450984 3.528348
228 76 3 -0.8476 16.501735 22.434494 4.199553
229 77 1 0.4238 9.78334 20.931977 14.104915
230 77 2 0.4238 10.334919 19.550873 14.77956
231 77 3 -0.8476 9.527863 20.123555 14.635294
232 78 1 0.4238 9.007975 25.66094 19.964608
233 78 2 0.4238 9.766048 26.193949 18.619965
234 78 3 -0.8476 9.838556 25.588188 19.412376
235 79 1 0.4238 13.45771 12.22781 27.804969
236 79 2 0.4238 14.356992 13.113505 26.768787
237 79 3 -0.8476 13.442034 12.755706 26.955736
238 80 1 0.4238 24.19885 21.359105 28.24231
239 80 2 0.4238 25.108005 22.713039 28.157826
240 80 3 -0.8476 24.1751 22.358695 28.222994
241 81 1 0.4238 7.530372 25.923512 5.931815
242 81 2 0.4238 6.718773 27.028884 5.045081
243 81 3 -0.8476 7.244158 26.880493 5.882976
244 82 1 0.4238 9.785834 9.218821 19.858315
245 82 2 0.4238 8.663101 10.11895 20.630374
246 82 3 -0.8476 8.882539 9.205581 20.287267
247 83 1 0.4238 10.777411 23.123221 23.086631
248 83 2 0.4238 12.328298 22.658517 22.873007
249 83 3 -0.8476 11.394238 22.338023 23.030911
250 84 1 0.4238 16.138999 3.427563 5.88999
251 84 2 0.4238 16.294803 4.011669 4.372959
252 84 3 -0.8476 15.996775 3.229426 4.920129
253 85 1 0.4238 3.904457 10.224706 13.146415
254 85 2 0.4238 2.779358 9.083796 13.461557
255 85 3 -0.8476 3.734718 9.347389 13.595437
256 86 1 0.4238 21.645942 11.324804 26.496861
257 86 2 0.4238 21.541448 11.905505 24.974132
258 86 3 -0.8476 22.131739 11.820584 25.776916
259 87 1 0.4238 21.687346 18.264294 22.440037
260 87 2 0.4238 21.919797 18.961593 20.981759
261 87 3 -0.8476 21.514938 18.181233 21.458461
262 88 1 0.4238 8.066708 1.478424 22.120755
263 88 2 0.4238 6.720673 2.187447 21.527195
264 88 3 -0.8476 7.0789 1.58171 22.23774
265 89 1 0.4238 20.220232 11.308518 8.527068
266 89 2 0.4238 21.131198 9.95318 8.521112
267 89 3 -0.8476 20.196488 10.308749 8.523171
268 90 1 0.4238 4.099106 26.544324 9.329219
269 90 2 0.4238 4.740834 28.042783 9.231021
270 90 3 -0.8476 4.015429 27.441604 8.895625
271 91 1 0.4238 7.992989 18.21536 11.035932
272 91 2 0.4238 6.386724 17.942546 10.924939
273 91 3 -0.8476 7.120886 18.590402 10.721455
274 92 1 0.4238 9.309256 3.607801 13.558011
275 92 2 0.4238 9.862399 5.01036 12.930558
276 92 3 -0.8476 9.486856 4.573452 13.747991
277 93 1 0.4238 11.080198 1.569242 15.113392
278 93 2 0.4238 10.504822 3.082404 15.328145
279 93 3 -0.8476 10.326332 2.193095 14.90697
280 94 1 0.4238 14.734688 20.431224 7.287578
281 94 2 0.4238 15.732993 19.148189 7.132509
282 94 3 -0.8476 15.533087 20.071553 6.804554
283 95 1 0.4238 24.098858 24.650888 18.573072
284 95 2 0.4238 23.117372 23.34686 18.628144
285 95 3 -0.8476 23.152448 24.345084 18.677515
286 96 1 0.4238 25.340523 28.5004 15.830708
287 96 2 0.4238 26.410993 27.784596 14.82644
288 96 3 -0.8476 26.30992 28.317423 15.666676
289 97 1 0.4238 21.90112 14.009548 24.443254
290 97 2 0.4238 21.026029 15.041722 23.529104
291 97 3 -0.8476 21.871217 14.929292 24.051728
292 98 1 0.4238 14.898682 3.186375 7.740966
293 98 2 0.4238 16.204435 2.205797 7.758657
294 98 3 -0.8476 15.829924 3.072854 8.0874
295 99 1 0.4238 7.851023 8.853069 11.770031
296 99 2 0.4238 7.395495 7.433229 12.435902
297 99 3 -0.8476 8.173405 8.029117 12.236173
298 100 1 0.4238 12.655817 3.541028 15.30614
299 100 2 0.4238 12.243366 2.666938 16.622455
300 100 3 -0.8476 12.982595 3.171208 16.175947
301 101 1 0.4238 6.369468 7.272375 17.636408
302 101 2 0.4238 6.17267 6.283506 16.35179
303 101 3 -0.8476 5.698225 6.836643 17.03667
304 102 1 0.4238 6.829638 25.032064 25.98366
305 102 2 0.4238 6.227678 26.351517 26.734343
306 102 3 -0.8476 7.063889 25.854756 26.501754
307 103 1 0.4238 5.677777 4.497263 10.634528
308 103 2 0.4238 4.077467 4.677085 10.905655
309 103 3 -0.8476 4.857936 5.007752 10.374953
310 104 1 0.4238 4.160797 24.93882 16.927467
311 104 2 0.4238 4.471711 23.91898 18.164437
312 104 3 -0.8476 3.837291 24.131527 17.421165
313 105 1 0.4238 12.545619 13.234773 23.902532
314 105 2 0.4238 12.083347 13.573961 25.431614
315 105 3 -0.8476 12.82242 13.21222 24.863255
316 106 1 0.4238 15.800548 1.495499 25.564664
317 106 2 0.4238 15.678421 3.026807 26.118757
318 106 3 -0.8476 15.257828 2.334843 25.531896
319 107 1 0.4238 9.156299 25.415895 7.323069
320 107 2 0.4238 10.677548 25.822583 6.890353
321 107 3 -0.8476 10.115322 25.408906 7.606517
322 108 1 0.4238 18.561471 19.412343 13.395938
323 108 2 0.4238 19.421035 20.177219 12.237081
324 108 3 -0.8476 19.046996 20.254566 13.161327
325 109 1 0.4238 20.821664 9.5537 12.897509
326 109 2 0.4238 21.381216 10.049164 14.349491
327 109 3 -0.8476 21.606685 9.940845 13.38122
328 110 1 0.4238 20.691274 25.236385 4.742307
329 110 2 0.4238 21.114352 24.799007 6.257741
330 110 3 -0.8476 21.092572 24.51014 5.300558
331 111 1 0.4238 23.384722 6.00421 6.533117
332 111 2 0.4238 23.338829 4.96288 7.790242
333 111 3 -0.8476 23.019263 5.131774 6.857788
334 112 1 0.4238 19.083146 5.770631 21.255003
335 112 2 0.4238 17.810919 5.516569 22.246832
336 112 3 -0.8476 18.086248 5.800929 21.328436
337 113 1 0.4238 14.595984 16.95342 23.243078
338 113 2 0.4238 15.181578 18.023679 22.157508
339 113 3 -0.8476 14.817213 17.100307 22.278921
340 114 1 0.4238 14.675974 26.133913 23.2961
341 114 2 0.4238 13.939685 24.891783 22.533323
342 114 3 -0.8476 14.821956 25.270356 22.813322
343 115 1 0.4238 18.263219 21.746834 8.844649
344 115 2 0.4238 16.99776 22.757052 8.632727
345 115 3 -0.8476 17.812117 22.572696 9.18314
346 116 1 0.4238 26.759752 25.627995 14.571905
347 116 2 0.4238 25.872216 24.874341 13.426862
348 116 3 -0.8476 26.038266 24.954732 14.409757
349 117 1 0.4238 17.53086 3.492334 2.40166
350 117 2 0.4238 18.347504 4.580226 1.4981
351 117 3 -0.8476 18.240709 3.608032 1.70679
352 118 1 0.4238 18.955352 14.87084 11.392643
353 118 2 0.4238 19.827118 15.324729 10.088479
354 118 3 -0.8476 19.276765 15.65167 10.856813
355 119 1 0.4238 13.773711 2.51695 5.974698
356 119 2 0.4238 15.048643 1.499731 5.893145
357 119 3 -0.8476 14.106365 1.604051 6.211496
358 120 1 0.4238 6.771961 3.004098 6.156002
359 120 2 0.4238 7.02566 3.901677 7.496459
360 120 3 -0.8476 6.591503 3.883979 6.59573
361 121 1 0.4238 22.083673 3.621751 27.809142
362 121 2 0.4238 20.956163 3.590928 26.628207
363 121 3 -0.8476 21.518268 3.029167 27.235316
364 122 1 0.4238 10.708374 15.411069 16.580456
365 122 2 0.4238 10.288174 16.884595 16.015665
366 122 3 -0.8476 10.463579 15.932947 15.763244
367 123 1 0.4238 16.538404 8.045879 23.25213
368 123 2 0.4238 16.022948 9.586767 23.088408
369 123 3 -0.8476 16.762905 8.946876 22.880753
370 124 1 0.4238 12.019984 24.073929 4.426795
371 124 2 0.4238 10.590115 24.533717 5.067815
372 124 3 -0.8476 11.110417 24.434293 4.21957
373 125 1 0.4238 6.319153 17.93012 23.557771
374 125 2 0.4238 6.036152 19.538454 23.560789
375 125 3 -0.8476 5.687862 18.647553 23.852521
376 126 1 0.4238 24.570027 3.221743 20.498069
377 126 2 0.4238 26.144467 2.788892 20.522884
378 126 3 -0.8476 25.478574 3.424985 20.132896
379 127 1 0.4238 11.375138 8.25566 23.175016
380 127 2 0.4238 12.422441 9.46671 23.496496
381 127 3 -0.8476 12.332319 8.480428 23.357772
382 128 1 0.4238 18.134296 5.166547 11.433762
383 128 2 0.4238 18.960828 4.691453 12.759645
384 128 3 -0.8476 18.361452 5.396345 12.380181
385 129 1 0.4238 18.52453 21.944483 25.029573
386 129 2 0.4238 19.569104 21.028015 24.171793
387 129 3 -0.8476 19.412194 21.932244 24.569118
388 130 1 0.4238 6.815 13.81944 9.890831
389 130 2 0.4238 5.533465 13.973786 10.891172
390 130 3 -0.8476 6.527396 13.872375 10.847177
391 131 1 0.4238 2.637713 6.889695 17.67054
392 131 2 0.4238 3.768427 8.066252 17.734076
393 131 3 -0.8476 3.619023 7.077635 17.713271
394 132 1 0.4238 5.420884 23.209837 6.552434
395 132 2 0.4238 5.50071 21.628666 6.151984
396 132 3 -0.8476 6.037032 22.440749 6.382195
397 133 1 0.4238 13.845538 25.945157 11.008829
398 133 2 0.4238 13.493721 26.936489 9.759702
399 133 3 -0.8476 14.101015 26.208731 10.078573
400 134 1 0.4238 6.097914 15.56558 7.064046
401 134 2 0.4238 6.908476 14.32872 7.75687
402 134 3 -0.8476 6.825535 14.891839 6.934595
403 135 1 0.4238 16.540273 7.171401 14.081429
404 135 2 0.4238 17.551274 5.919094 14.357906
405 135 3 -0.8476 16.691768 6.350529 14.632187
406 136 1 0.4238 1.498944 9.309986 25.900603
407 136 2 0.4238 1.47668 9.2823 27.533262
408 136 3 -0.8476 1.680055 8.75171 26.710321
409 137 1 0.4238 28.49763 14.924801 21.486333
410 137 2 0.4238 26.920613 14.711335 21.852782
411 137 3 -0.8476 27.855781 14.439602 22.080243
412 138 1 0.4238 11.956644 20.995297 14.438666
413 138 2 0.4238 12.38312 19.580981 13.742487
414 138 3 -0.8476 12.521254 20.175475 14.534708
415 139 1 0.4238 4.787324 17.481338 12.381875
416 139 2 0.4238 5.764059 18.682904 12.900588
417 139 3 -0.8476 5.421434 17.765051 13.101269
418 140 1 0.4238 10.748203 5.727708 8.692186
419 140 2 0.4238 9.837126 6.194723 7.419916
420 140 3 -0.8476 9.920755 5.533244 8.165281
421 141 1 0.4238 19.299355 18.445114 10.887308
422 141 2 0.4238 19.915864 18.03575 12.343046
423 141 3 -0.8476 20.06798 18.008539 11.354998
424 142 1 0.4238 12.976609 7.266813 11.312681
425 142 2 0.4238 12.364346 6.553094 9.97755
426 142 3 -0.8476 12.9549 6.424333 10.774284
427 143 1 0.4238 8.596293 28.504101 5.271813
428 143 2 0.4238 9.776368 27.57426 5.911855
429 143 3 -0.8476 9.455854 28.512746 5.782887
430 144 1 0.4238 1.499053 7.742021 22.950216
431 144 2 0.4238 2.538808 8.399099 21.875975
432 144 3 -0.8476 1.581593 8.35145 22.16161
433 145 1 0.4238 5.820934 27.670782 23.909862
434 145 2 0.4238 6.429913 28.366869 22.563963
435 145 3 -0.8476 6.24393 28.497123 23.537905
436 146 1 0.4238 1.491632 18.622298 15.901897
437 146 2 0.4238 1.522129 17.197261 15.104918
438 146 3 -0.8476 1.904475 17.711909 15.872425
439 147 1 0.4238 20.833388 9.57996 4.086052
440 147 2 0.4238 22.382803 9.392453 3.605438
441 147 3 -0.8476 21.788448 9.602486 4.381805
442 148 1 0.4238 24.464019 16.572237 13.345345
443 148 2 0.4238 23.87845 18.089328 13.195748
444 148 3 -0.8476 23.684951 17.120449 13.04099
445 149 1 0.4238 7.671786 3.844254 9.974345
446 149 2 0.4238 9.258244 3.978037 9.610907
447 149 3 -0.8476 8.589623 3.959499 10.354358
448 150 1 0.4238 15.709189 23.392693 11.258851
449 150 2 0.4238 14.12842 23.791184 11.354807
450 150 3 -0.8476 14.777062 23.032298 11.295878
451 151 1 0.4238 2.131102 16.593847 19.672633
452 151 2 0.4238 1.720489 15.654921 20.944109
453 151 3 -0.8476 1.407779 16.378643 20.328839
454 152 1 0.4238 11.265259 23.842105 20.102865
455 152 2 0.4238 12.544156 23.958737 21.111654
456 152 3 -0.8476 11.678434 23.487779 20.941826
457 153 1 0.4238 6.265122 24.602134 1.479483
458 153 2 0.4238 6.357589 23.399347 2.580205
459 153 3 -0.8476 5.917246 23.699752 1.734053
460 154 1 0.4238 2.296504 26.890813 23.149113
461 154 2 0.4238 3.409974 25.703851 23.014418
462 154 3 -0.8476 3.038299 26.410203 23.616949
463 155 1 0.4238 10.751346 10.317975 21.499021
464 155 2 0.4238 12.370584 10.136462 21.389684
465 155 3 -0.8476 11.499285 9.65434 21.481955
466 156 1 0.4238 15.537028 25.665888 7.243646
467 156 2 0.4238 17.169168 25.714405 7.268133
468 156 3 -0.8476 16.370185 25.113002 7.260478
469 157 1 0.4238 12.980904 13.797397 7.714661
470 157 2 0.4238 11.44198 13.406018 7.333384
471 157 3 -0.8476 12.374368 13.056481 7.426091
472 158 1 0.4238 27.578999 27.139548 19.817764
473 158 2 0.4238 28.500086 26.426915 18.672955
474 158 3 -0.8476 27.964541 26.272062 19.503213
475 159 1 0.4238 18.876183 22.627721 17.257805
476 159 2 0.4238 18.422645 22.485192 18.820119
477 159 3 -0.8476 19.1502 22.296012 18.160579
478 160 1 0.4238 1.498518 25.565957 27.144317
479 160 2 0.4238 2.463218 24.417204 26.498905
480 160 3 -0.8476 1.520769 24.653424 26.735777
481 161 1 0.4238 6.733815 3.604209 18.584873
482 161 2 0.4238 6.780307 3.941691 20.181989
483 161 3 -0.8476 7.154488 4.180289 19.285788
484 162 1 0.4238 5.355335 4.486419 4.702989
485 162 2 0.4238 4.303831 3.816121 3.648534
486 162 3 -0.8476 5.23461 3.773799 4.01182
487 163 1 0.4238 10.754871 11.663988 25.552669
488 163 2 0.4238 11.945299 10.659501 26.043304
489 163 3 -0.8476 11.708291 11.397346 25.41122
490 164 1 0.4238 2.344832 27.785327 11.569017
491 164 2 0.4238 3.708791 28.500064 12.112712
492 164 3 -0.8476 3.316908 27.649882 11.760952
493 165 1 0.4238 11.378771 28.501168 22.360907
494 165 2 0.4238 10.085765 27.631961 21.871569
495 165 3 -0.8476 11.001437 27.57948 22.270203
496 166 1 0.4238 22.62842 5.463334 10.90893
497 166 2 0.4238 21.290761 6.053129 11.636698
498 166 3 -0.8476 22.149728 6.296498 11.186071
499 167 1 0.4238 24.19323 22.934574 1.49715
500 167 2 0.4238 25.559578 23.799128 1.726226
501 167 3 -0.8476 25.185814 22.879367 1.605987
502 168 1 0.4238 14.769984 1.499637 27.507674
503 168 2 0.4238 13.667799 2.181119 28.501458
504 168 3 -0.8476 14.643951 2.027539 28.347645
505 169 1 0.4238 19.037972 8.159058 4.353926
506 169 2 0.4238 17.794442 7.727812 3.387233
507 169 3 -0.8476 18.323836 8.498656 3.741718
508 170 1 0.4238 4.143483 27.021131 26.529211
509 170 2 0.4238 4.120339 25.625184 27.376343
510 170 3 -0.8476 3.558711 26.29422 26.889431
511 171 1 0.4238 21.349143 18.710992 1.495422
512 171 2 0.4238 21.056453 17.105755 1.561635
513 171 3 -0.8476 21.654723 17.840531 1.881473
514 172 1 0.4238 18.65056 24.564979 19.869565
515 172 2 0.4238 17.118964 24.062679 20.131758
516 172 3 -0.8476 17.740384 24.474557 19.46519
517 173 1 0.4238 27.339728 21.266207 6.940751
518 173 2 0.4238 28.216819 19.899333 6.769863
519 173 3 -0.8476 28.228275 20.839675 7.110074
520 174 1 0.4238 4.144684 24.888352 20.811066
521 174 2 0.4238 4.975732 26.233368 20.402253
522 174 3 -0.8476 4.594675 25.708878 21.163715
523 175 1 0.4238 9.291688 5.461769 16.440097
524 175 2 0.4238 8.294985 6.723491 16.725535
525 175 3 -0.8476 8.378005 5.833881 16.276292
526 176 1 0.4238 22.720723 10.100029 24.539811
527 176 2 0.4238 23.775023 9.119516 23.769174
528 176 3 -0.8476 23.682457 9.959065 24.304625
529 177 1 0.4238 12.704033 15.177994 6.029722
530 177 2 0.4238 11.489322 15.58551 7.042266
531 177 3 -0.8476 12.199251 15.940766 6.434062
532 178 1 0.4238 10.641837 10.27993 17.136473
533 178 2 0.4238 9.474676 9.276019 17.681204
534 178 3 -0.8476 10.45845 9.455525 17.672049
535 179 1 0.4238 4.927043 2.822137 19.794205
536 179 2 0.4238 4.396464 4.239836 20.406947
537 179 3 -0.8476 4.121931 3.395359 19.946938
538 180 1 0.4238 7.680268 22.224894 26.496054
539 180 2 0.4238 6.621312 21.406311 27.431666
540 180 3 -0.8476 6.950704 22.314765 27.174121
541 181 1 0.4238 19.767361 19.768794 2.598382
542 181 2 0.4238 19.5595 19.739753 4.217883
543 181 3 -0.8476 20.200495 19.953555 3.480637
544 182 1 0.4238 13.04964 6.300849 7.398458
545 182 2 0.4238 13.188508 4.673912 7.373416
546 182 3 -0.8476 12.751857 5.449204 7.829899
547 183 1 0.4238 24.210486 17.624718 1.803186
548 183 2 0.4238 24.431347 19.240474 1.88915
549 183 3 -0.8476 23.757812 18.503929 1.952155
550 184 1 0.4238 26.373913 7.128273 5.985158
551 184 2 0.4238 27.790092 6.344695 6.202596
552 184 3 -0.8476 27.333353 7.233253 6.247015
553 185 1 0.4238 17.607588 20.816634 17.640737
554 185 2 0.4238 16.709023 21.114105 18.971499
555 185 3 -0.8476 17.364978 20.485967 18.552831
556 186 1 0.4238 20.487001 17.141635 23.902053
557 186 2 0.4238 19.456128 16.427901 22.855764
558 186 3 -0.8476 19.78274 17.303901 23.21082
559 187 1 0.4238 21.973786 8.481926 11.360282
560 187 2 0.4238 20.53242 8.755905 10.643179
561 187 3 -0.8476 21.477771 8.466797 10.492032
562 188 1 0.4238 7.02976 23.357297 8.996104
563 188 2 0.4238 5.472717 23.765214 8.720323
564 188 3 -0.8476 6.158597 23.04475 8.617283
565 189 1 0.4238 5.116126 10.563796 14.974226
566 189 2 0.4238 6.742192 10.555407 15.124807
567 189 3 -0.8476 5.909536 11.083902 15.290623
568 190 1 0.4238 14.030606 1.49033 17.131335
569 190 2 0.4238 15.081298 1.516213 18.38122
570 190 3 -0.8476 14.59066 2.078177 17.715195
571 191 1 0.4238 8.49487 16.036989 6.074084
572 191 2 0.4238 9.966478 16.112025 5.370113
573 191 3 -0.8476 9.479553 15.958117 6.229958
574 192 1 0.4238 1.499686 21.590936 4.529587
575 192 2 0.4238 1.851577 20.782529 3.155001
576 192 3 -0.8476 1.659132 20.687379 4.131745
577 193 1 0.4238 19.766508 11.025435 20.816466
578 193 2 0.4238 20.775101 10.951855 19.534217
579 193 3 -0.8476 19.860027 10.724372 19.867398
580 194 1 0.4238 21.932053 18.111097 7.401686
581 194 2 0.4238 21.560024 19.698619 7.492262
582 194 3 -0.8476 21.226628 18.796121 7.219383
583 195 1 0.4238 19.102834 3.846844 27.792897
584 195 2 0.4238 18.978103 4.50927 26.30546
585 195 3 -0.8476 19.165831 4.696779 27.269678
586 196 1 0.4238 6.931906 28.501361 14.03836
587 196 2 0.4238 5.669547 28.174465 13.055292
588 196 3 -0.8476 6.620073 28.483537 13.088329
589 197 1 0.4238 18.499706 28.50538 18.124859
590 197 2 0.4238 19.759457 27.748744 17.412563
591 197 3 -0.8476 19.486153 28.346294 18.166457
592 198 1 0.4238 12.857992 26.036868 1.606539
593 198 2 0.4238 13.202491 25.318433 3.032024
594 198 3 -0.8476 12.836303 26.143049 2.600708
595 199 1 0.4238 1.916097 4.097707 12.80677
596 199 2 0.4238 1.972921 5.599921 13.444704
597 199 3 -0.8476 2.505647 4.883491 12.994095
598 200 1 0.4238 11.916631 7.996856 2.672072
599 200 2 0.4238 12.868323 7.928264 3.99737
600 200 3 -0.8476 12.41134 7.387082 3.29139
601 201 1 0.4238 17.583634 24.335188 25.909508
602 201 2 0.4238 17.534247 25.965338 25.993218
603 201 3 -0.8476 17.024576 25.122927 26.168423
604 202 1 0.4238 14.509554 18.951609 5.212113
605 202 2 0.4238 15.30777 20.249124 4.623774
606 202 3 -0.8476 15.350089 19.260241 4.766732
607 203 1 0.4238 11.473331 23.563566 1.488092
608 203 2 0.4238 10.615695 24.892903 1.893259
609 203 3 -0.8476 11.466775 24.391414 2.04911
610 204 1 0.4238 5.493995 3.3078 13.132904
611 204 2 0.4238 3.952092 3.274556 12.596002
612 204 3 -0.8476 4.715993 3.868342 12.848968
613 205 1 0.4238 21.472988 6.969459 7.589332
614 205 2 0.4238 22.276086 8.075715 8.482679
615 205 3 -0.8476 21.392915 7.630117 8.335814
616 206 1 0.4238 8.648055 26.347494 24.988501
617 206 2 0.4238 10.255605 26.300686 24.704905
618 206 3 -0.8476 9.370332 25.909485 24.45317
619 207 1 0.4238 2.301887 11.168848 26.759582
620 207 2 0.4238 1.788636 12.719117 26.768357
621 207 3 -0.8476 1.497106 11.762506 26.763418
622 208 1 0.4238 19.941866 4.0913 23.97575
623 208 2 0.4238 19.256265 3.879528 22.508801
624 208 3 -0.8476 19.101329 4.197168 23.444332
625 209 1 0.4238 16.922898 25.72908 1.497176
626 209 2 0.4238 17.343556 24.160086 1.664924
627 209 3 -0.8476 16.575917 24.799746 1.623894
628 210 1 0.4238 3.128209 28.504533 14.233869
629 210 2 0.4238 1.495164 28.505138 14.235218
630 210 3 -0.8476 2.311458 27.927724 14.215841
631 211 1 0.4238 22.8404 15.579006 21.597024
632 211 2 0.4238 23.945403 16.780053 21.539665
633 211 3 -0.8476 22.99574 16.534269 21.345117
634 212 1 0.4238 8.608046 19.684311 9.518867
635 212 2 0.4238 9.836164 18.691796 9.93537
636 212 3 -0.8476 9.513423 19.638328 9.941117
637 213 1 0.4238 16.748412 27.719074 2.418259
638 213 2 0.4238 15.625518 28.502863 1.528528