LAMMPS data file. CGCMM style. atom_style full generated by VMD/TopoTools v1.8 on Wed Sep 21 09:33:32 -0400 2022
 450 atoms
 300 bonds
 150 angles
 0 dihedrals
 0 impropers
 2 atom types
 1 bond types
 1 angle types
 0 dihedral types
 0 improper types
 -1.493501 18.506499  xlo xhi
 -1.354501 18.645499  ylo yhi
 -1.477500 18.522500  zlo zhi

# Pair Coeffs
#
# 1  H
# 2  O

# Bond Coeffs
#
# 1  H-O

# Angle Coeffs
#
# 1  H-O-H

 Masses

 1 1.008000 # H
 2 15.999000 # O

 Atoms # full

1 1 1 0.000000 15.034000 11.006000 1.793000 # H HOH
2 1 1 0.000000 15.666000 10.149000 3.032000 # H HOH
3 1 2 0.000000 14.840000 10.592000 2.683000 # O HOH
4 2 1 0.000000 14.179000 2.041000 13.569000 # H HOH
5 2 1 0.000000 15.780000 2.082000 13.251000 # H HOH
6 2 2 0.000000 14.959000 2.637000 13.381000 # O HOH
7 3 1 0.000000 16.599001 12.006000 7.615000 # H HOH
8 3 1 0.000000 15.086000 11.393000 7.626000 # H HOH
9 3 2 0.000000 16.058001 11.166000 7.665000 # O HOH
10 4 1 0.000000 13.132000 9.267000 14.362000 # H HOH
11 4 1 0.000000 14.635000 9.840000 14.643000 # H HOH
12 4 2 0.000000 14.089000 9.226000 14.074000 # O HOH
13 5 1 0.000000 3.477000 13.935000 4.747000 # H HOH
14 5 1 0.000000 4.950000 13.832000 4.050000 # H HOH
15 5 2 0.000000 4.135000 13.318000 4.316000 # O HOH
16 6 1 0.000000 0.208000 11.656000 15.957000 # H HOH
17 6 1 0.000000 0.679000 10.098000 16.090000 # H HOH
18 6 2 0.000000 0.002000 10.714000 15.689000 # O HOH
19 7 1 0.000000 5.053000 9.084000 7.163000 # H HOH
20 7 1 0.000000 3.835000 8.900000 8.235000 # H HOH
21 7 2 0.000000 4.154000 8.673000 7.316000 # O HOH
22 8 1 0.000000 12.148000 7.180000 3.777000 # H HOH
23 8 1 0.000000 12.192000 5.623000 4.267000 # H HOH
24 8 2 0.000000 12.694000 6.487000 4.249000 # O HOH
25 9 1 0.000000 9.100000 7.320000 12.082000 # H HOH
26 9 1 0.000000 8.052000 8.572000 12.094000 # H HOH
27 9 2 0.000000 8.133000 7.576000 12.086000 # O HOH
28 10 1 0.000000 10.726000 6.143000 2.451000 # H HOH
29 10 1 0.000000 10.553000 6.276000 0.833000 # H HOH
30 10 2 0.000000 10.586000 6.782000 1.695000 # O HOH
31 11 1 0.000000 9.854000 13.806000 0.003000 # H HOH
32 11 1 0.000000 10.263000 12.252000 0.297000 # H HOH
33 11 2 0.000000 10.285000 13.184000 0.657000 # O HOH
34 12 1 0.000000 16.740000 5.456000 10.015000 # H HOH
35 12 1 0.000000 15.439000 5.613000 9.041000 # H HOH
36 12 2 0.000000 16.218000 6.091000 9.445000 # O HOH
37 13 1 0.000000 8.201000 11.502000 0.440000 # H HOH
38 13 1 0.000000 8.007000 13.051000 0.921000 # H HOH
39 13 2 0.000000 7.534000 12.195000 0.715000 # O HOH
40 14 1 0.000000 14.515000 14.199000 16.964001 # H HOH
41 14 1 0.000000 14.915000 13.936000 15.403000 # H HOH
42 14 2 0.000000 15.101000 14.496000 16.209000 # O HOH
43 15 1 0.000000 2.678000 16.999001 4.690000 # H HOH
44 15 1 0.000000 1.716000 15.680000 4.706000 # H HOH
45 15 2 0.000000 2.663000 15.999000 4.700000 # O HOH
46 16 1 0.000000 2.663000 11.305000 2.569000 # H HOH
47 16 1 0.000000 1.190000 10.621000 2.395000 # H HOH
48 16 2 0.000000 1.894000 11.169000 1.944000 # O HOH
49 17 1 0.000000 14.954000 13.230000 12.848000 # H HOH
50 17 1 0.000000 14.524000 11.654000 12.824000 # H HOH
51 17 2 0.000000 14.182000 12.593000 12.837000 # O HOH
52 18 1 0.000000 11.170000 15.105000 2.778000 # H HOH
53 18 1 0.000000 12.593000 14.321000 2.613000 # H HOH
54 18 2 0.000000 12.163000 15.216000 2.726000 # O HOH
55 19 1 0.000000 3.801000 2.635000 4.319000 # H HOH
56 19 1 0.000000 4.201000 1.062000 4.495000 # H HOH
57 19 2 0.000000 3.494000 1.693000 4.178000 # O HOH
58 20 1 0.000000 6.340000 12.092000 3.904000 # H HOH
59 20 1 0.000000 5.165000 11.032000 4.305000 # H HOH
60 20 2 0.000000 5.443000 11.731000 3.647000 # O HOH
61 21 1 0.000000 5.200000 6.712000 11.883000 # H HOH
62 21 1 0.000000 3.674000 6.245000 12.230000 # H HOH
63 21 2 0.000000 4.288000 7.029000 12.143000 # O HOH
64 22 1 0.000000 1.902000 2.819000 2.940000 # H HOH
65 22 1 0.000000 0.292000 2.548000 2.965000 # H HOH
66 22 2 0.000000 1.096000 2.737000 3.527000 # O HOH
67 23 1 0.000000 6.075000 8.867000 4.996000 # H HOH
68 23 1 0.000000 6.792000 7.630000 5.785000 # H HOH
69 23 2 0.000000 6.952000 8.450000 5.237000 # O HOH
70 24 1 0.000000 13.949000 16.742001 0.455000 # H HOH
71 24 1 0.000000 14.815000 16.388000 1.793000 # H HOH
72 24 2 0.000000 14.129000 17.002001 1.404000 # O HOH
73 25 1 0.000000 3.545000 14.420000 11.464000 # H HOH
74 25 1 0.000000 3.442000 16.049000 11.499000 # H HOH
75 25 2 0.000000 2.918000 15.198000 11.493000 # O HOH
76 26 1 0.000000 6.129000 4.857000 3.895000 # H HOH
77 26 1 0.000000 7.741000 4.705000 3.683000 # H HOH
78 26 2 0.000000 6.994000 5.354000 3.823000 # O HOH
79 27 1 0.000000 15.192000 0.825000 4.848000 # H HOH
80 27 1 0.000000 16.785000 1.124000 4.647000 # H HOH
81 27 2 0.000000 16.114000 0.459000 4.974000 # O HOH
82 28 1 0.000000 2.342000 4.307000 4.488000 # H HOH
83 28 1 0.000000 2.183000 4.118000 6.102000 # H HOH
84 28 2 0.000000 1.775000 4.522000 5.284000 # O HOH
85 29 1 0.000000 1.260000 13.667000 11.680000 # H HOH
86 29 1 0.000000 0.650000 12.329000 10.969000 # H HOH
87 29 2 0.000000 1.231000 13.131000 10.835000 # O HOH
88 30 1 0.000000 7.390000 7.558000 3.180000 # H HOH
89 30 1 0.000000 6.742000 8.029000 1.757000 # H HOH
90 30 2 0.000000 7.505000 7.547000 2.187000 # O HOH
91 31 1 0.000000 7.743000 5.787000 7.453000 # H HOH
92 31 1 0.000000 6.523000 4.710000 7.316000 # H HOH
93 31 2 0.000000 6.787000 5.664000 7.183000 # O HOH
94 32 1 0.000000 7.056000 0.914000 5.433000 # H HOH
95 32 1 0.000000 8.640000 0.523000 5.376000 # H HOH
96 32 2 0.000000 7.987000 1.278000 5.426000 # O HOH
97 33 1 0.000000 10.633000 5.778000 12.412000 # H HOH
98 33 1 0.000000 11.509000 5.256000 11.136000 # H HOH
99 33 2 0.000000 10.841000 5.933000 11.446000 # O HOH
100 34 1 0.000000 10.132000 5.819000 16.061001 # H HOH
101 34 1 0.000000 10.174000 7.155000 17.000000 # H HOH
102 34 2 0.000000 10.693000 6.594000 16.355000 # O HOH
103 35 1 0.000000 2.148000 8.350000 12.832000 # H HOH
104 35 1 0.000000 0.956000 7.379000 12.280000 # H HOH
105 35 2 0.000000 1.157000 8.230000 12.764000 # O HOH
106 36 1 0.000000 14.144000 1.403000 3.067000 # H HOH
107 36 1 0.000000 12.842000 2.051000 3.811000 # H HOH
108 36 2 0.000000 13.831000 2.124000 3.686000 # O HOH
109 37 1 0.000000 16.285000 10.573000 10.624000 # H HOH
110 37 1 0.000000 16.129000 12.076000 10.006000 # H HOH
111 37 2 0.000000 15.922000 11.109000 9.862000 # O HOH
112 38 1 0.000000 5.307000 5.640000 1.728000 # H HOH
113 38 1 0.000000 4.072000 6.487000 1.076000 # H HOH
114 38 2 0.000000 5.055000 6.311000 1.031000 # O HOH
115 39 1 0.000000 8.730000 8.935000 10.030000 # H HOH
116 39 1 0.000000 9.775000 7.724000 9.703000 # H HOH
117 39 2 0.000000 8.811000 7.960000 9.821000 # O HOH
118 40 1 0.000000 0.521000 11.431000 5.897000 # H HOH
119 40 1 0.000000 1.145000 11.558000 4.393000 # H HOH
120 40 2 0.000000 0.382000 11.817000 4.984000 # O HOH
121 41 1 0.000000 0.002000 2.388000 8.902000 # H HOH
122 41 1 0.000000 0.001000 2.446000 7.270000 # H HOH
123 41 2 0.000000 0.574000 2.492000 8.088000 # O HOH
124 42 1 0.000000 13.082000 6.860000 6.434000 # H HOH
125 42 1 0.000000 13.099000 8.493000 6.445000 # H HOH
126 42 2 0.000000 12.514000 7.683000 6.435000 # O HOH
127 43 1 0.000000 12.217000 12.347000 7.508000 # H HOH
128 43 1 0.000000 10.723000 11.927000 8.016000 # H HOH
129 43 2 0.000000 11.385000 12.674000 7.955000 # O HOH
130 44 1 0.000000 6.136000 10.148000 14.202000 # H HOH
131 44 1 0.000000 7.243000 8.949000 14.266000 # H HOH
132 44 2 0.000000 7.103000 9.922000 14.085000 # O HOH
133 45 1 0.000000 11.284000 9.008000 12.555000 # H HOH
134 45 1 0.000000 12.056000 7.679000 12.003000 # H HOH
135 45 2 0.000000 11.923000 8.277000 12.793000 # O HOH
136 46 1 0.000000 14.529000 15.027000 10.832000 # H HOH
137 46 1 0.000000 13.435000 13.816000 10.912000 # H HOH
138 46 2 0.000000 14.410000 14.035000 10.883000 # O HOH
139 47 1 0.000000 10.768000 6.262000 6.286000 # H HOH
140 47 1 0.000000 11.676000 4.906000 6.348000 # H HOH
141 47 2 0.000000 10.812000 5.296000 6.031000 # O HOH
142 48 1 0.000000 14.400000 9.846000 16.922001 # H HOH
143 48 1 0.000000 14.209000 8.239000 16.708000 # H HOH
144 48 2 0.000000 13.753000 9.085000 16.981001 # O HOH
145 49 1 0.000000 15.504000 14.795000 4.378000 # H HOH
146 49 1 0.000000 14.441000 13.555000 4.336000 # H HOH
147 49 2 0.000000 15.407000 13.800000 4.413000 # O HOH
148 50 1 0.000000 5.390000 12.098000 7.413000 # H HOH
149 50 1 0.000000 6.099000 12.972000 8.596000 # H HOH
150 50 2 0.000000 5.897000 12.048000 8.274000 # O HOH
151 51 1 0.000000 11.568000 3.986000 13.820000 # H HOH
152 51 1 0.000000 11.330000 2.781000 12.743000 # H HOH
153 51 2 0.000000 11.522000 3.756000 12.847000 # O HOH
154 52 1 0.000000 9.953000 9.568000 14.656000 # H HOH
155 52 1 0.000000 9.384000 8.043000 14.529000 # H HOH
156 52 2 0.000000 9.652000 8.859000 14.018000 # O HOH
157 53 1 0.000000 9.898000 13.745000 11.919000 # H HOH
158 53 1 0.000000 11.466000 14.181000 12.057000 # H HOH
159 53 2 0.000000 10.534000 14.517000 11.920000 # O HOH
160 54 1 0.000000 7.340000 14.400000 10.054000 # H HOH
161 54 1 0.000000 8.322000 15.699000 9.931000 # H HOH
162 54 2 0.000000 8.291000 14.710000 10.074000 # O HOH
163 55 1 0.000000 1.347000 0.886000 5.942000 # H HOH
164 55 1 0.000000 2.697000 0.002000 5.690000 # H HOH
165 55 2 0.000000 2.347000 0.910000 5.918000 # O HOH
166 56 1 0.000000 16.174999 1.992000 2.497000 # H HOH
167 56 1 0.000000 16.004999 1.643000 0.911000 # H HOH
168 56 2 0.000000 16.517000 1.432000 1.743000 # O HOH
169 57 1 0.000000 4.966000 3.194000 8.771000 # H HOH
170 57 1 0.000000 4.701000 1.583000 8.746000 # H HOH
171 57 2 0.000000 5.393000 2.295000 8.865000 # O HOH
172 58 1 0.000000 14.290000 5.084000 5.965000 # H HOH
173 58 1 0.000000 13.682000 3.855000 5.078000 # H HOH
174 58 2 0.000000 13.766000 4.233000 6.000000 # O HOH
175 59 1 0.000000 8.756000 5.341000 1.672000 # H HOH
176 59 1 0.000000 8.558000 5.249000 0.054000 # H HOH
177 59 2 0.000000 8.186000 4.971000 0.938000 # O HOH
178 60 1 0.000000 8.918000 16.823999 0.255000 # H HOH
179 60 1 0.000000 10.041000 15.832000 0.905000 # H HOH
180 60 2 0.000000 9.073000 16.080000 0.906000 # O HOH
181 61 1 0.000000 5.310000 14.517000 1.654000 # H HOH
182 61 1 0.000000 6.591000 14.252000 2.633000 # H HOH
183 61 2 0.000000 6.174000 14.023000 1.753000 # O HOH
184 62 1 0.000000 16.871000 6.057000 6.641000 # H HOH
185 62 1 0.000000 16.108999 6.100000 5.198000 # H HOH
186 62 2 0.000000 16.999001 6.126000 5.652000 # O HOH
187 63 1 0.000000 4.441000 4.076000 5.846000 # H HOH
188 63 1 0.000000 5.229000 2.652000 5.982000 # H HOH
189 63 2 0.000000 5.329000 3.623000 5.767000 # O HOH
190 64 1 0.000000 3.294000 9.003000 14.746000 # H HOH
191 64 1 0.000000 3.244000 7.449000 15.244000 # H HOH
192 64 2 0.000000 2.720000 8.296000 15.160000 # O HOH
193 65 1 0.000000 4.808000 10.024000 0.770000 # H HOH
194 65 1 0.000000 3.429000 10.451000 0.007000 # H HOH
195 65 2 0.000000 3.901000 9.712000 0.486000 # O HOH
196 66 1 0.000000 0.955000 0.838000 1.712000 # H HOH
197 66 1 0.000000 2.439000 1.411000 1.342000 # H HOH
198 66 2 0.000000 1.914000 0.592000 1.570000 # O HOH
199 67 1 0.000000 5.371000 16.054001 8.529000 # H HOH
200 67 1 0.000000 4.562000 16.974001 7.449000 # H HOH
201 67 2 0.000000 5.383000 16.424000 7.600000 # O HOH
202 68 1 0.000000 9.949000 3.614000 15.807000 # H HOH
203 68 1 0.000000 11.056000 3.748000 17.000000 # H HOH
204 68 2 0.000000 10.079000 3.719000 16.792999 # O HOH
205 69 1 0.000000 6.895000 2.968000 13.048000 # H HOH
206 69 1 0.000000 6.704000 1.347000 13.021000 # H HOH
207 69 2 0.000000 6.227000 2.225000 13.022000 # O HOH
208 70 1 0.000000 12.995000 14.680000 8.552000 # H HOH
209 70 1 0.000000 14.626000 14.613000 8.572000 # H HOH
210 70 2 0.000000 13.836000 15.182000 8.349000 # O HOH
211 71 1 0.000000 4.058000 5.168000 9.796000 # H HOH
212 71 1 0.000000 3.155000 6.511000 10.014000 # H HOH
213 71 2 0.000000 3.139000 5.512000 9.990000 # O HOH
214 72 1 0.000000 13.251000 3.276000 1.450000 # H HOH
215 72 1 0.000000 11.822000 2.665000 1.953000 # H HOH
216 72 2 0.000000 12.461000 3.428000 2.045000 # O HOH
217 73 1 0.000000 2.569000 14.349000 16.098000 # H HOH
218 73 1 0.000000 1.905000 13.117000 16.940001 # H HOH
219 73 2 0.000000 1.711000 13.898000 16.346001 # O HOH
220 74 1 0.000000 1.229000 13.062000 13.867000 # H HOH
221 74 1 0.000000 2.746000 13.649000 13.726000 # H HOH
222 74 2 0.000000 2.194000 12.817000 13.772000 # O HOH
223 75 1 0.000000 4.497000 10.001000 10.254000 # H HOH
224 75 1 0.000000 3.140000 10.813000 9.849000 # H HOH
225 75 2 0.000000 3.505000 9.934000 10.153000 # O HOH
226 76 1 0.000000 9.352000 13.260000 6.037000 # H HOH
227 76 1 0.000000 8.350000 12.106000 6.612000 # H HOH
228 76 2 0.000000 8.514000 12.744000 5.860000 # O HOH
229 77 1 0.000000 7.109000 10.027000 3.311000 # H HOH
230 77 1 0.000000 6.744000 10.352000 1.753000 # H HOH
231 77 2 0.000000 7.280000 10.646000 2.544000 # O HOH
232 78 1 0.000000 2.647000 0.039000 10.721000 # H HOH
233 78 1 0.000000 3.073000 0.842000 12.078000 # H HOH
234 78 2 0.000000 2.770000 0.943000 11.131000 # O HOH
235 79 1 0.000000 14.211000 3.418000 8.536000 # H HOH
236 79 1 0.000000 13.643000 2.295000 9.576000 # H HOH
237 79 2 0.000000 14.392000 2.529000 8.958000 # O HOH
238 80 1 0.000000 10.049000 8.852000 0.922000 # H HOH
239 80 1 0.000000 8.889000 7.777000 0.517000 # H HOH
240 80 2 0.000000 9.068000 8.725000 0.779000 # O HOH
241 81 1 0.000000 2.713000 10.513000 5.536000 # H HOH
242 81 1 0.000000 3.582000 9.163000 5.239000 # H HOH
243 81 2 0.000000 3.197000 9.991000 4.833000 # O HOH
244 82 1 0.000000 6.426000 5.779000 9.367000 # H HOH
245 82 1 0.000000 5.859000 7.292000 9.130000 # H HOH
246 82 2 0.000000 6.639000 6.753000 9.446000 # O HOH
247 83 1 0.000000 9.282000 7.732000 5.299000 # H HOH
248 83 1 0.000000 9.268000 6.288000 4.535000 # H HOH
249 83 2 0.000000 8.701000 7.039000 4.872000 # O HOH
250 84 1 0.000000 13.848000 16.990999 9.615000 # H HOH
251 84 1 0.000000 12.281000 16.534000 9.588000 # H HOH
252 84 2 0.000000 12.989000 16.988001 10.127000 # O HOH
253 85 1 0.000000 16.740999 13.447000 0.658000 # H HOH
254 85 1 0.000000 16.289000 12.830000 2.101000 # H HOH
255 85 2 0.000000 16.808001 13.555000 1.651000 # O HOH
256 86 1 0.000000 15.821000 10.931000 5.490000 # H HOH
257 86 1 0.000000 14.424000 10.119000 5.727000 # H HOH
258 86 2 0.000000 14.970000 10.628000 5.062000 # O HOH
259 87 1 0.000000 1.238000 12.715000 7.688000 # H HOH
260 87 1 0.000000 2.466000 13.403000 8.515000 # H HOH
261 87 2 0.000000 2.228000 12.856000 7.713000 # O HOH
262 88 1 0.000000 1.663000 8.222000 7.555000 # H HOH
263 88 1 0.000000 1.162000 9.143000 6.303000 # H HOH
264 88 2 0.000000 1.286000 9.112000 7.294000 # O HOH
265 89 1 0.000000 1.180000 13.232000 2.103000 # H HOH
266 89 1 0.000000 -0.041000 13.728000 3.067000 # H HOH
267 89 2 0.000000 0.896000 13.915000 2.776000 # O HOH
268 90 1 0.000000 6.665000 3.064000 0.009000 # H HOH
269 90 1 0.000000 6.226000 4.637000 0.007000 # H HOH
270 90 2 0.000000 6.339000 3.822000 0.575000 # O HOH
271 91 1 0.000000 16.297001 8.950000 16.954000 # H HOH
272 91 1 0.000000 16.593000 9.210000 15.369000 # H HOH
273 91 2 0.000000 17.011000 9.025000 16.257999 # O HOH
274 92 1 0.000000 4.080000 15.459000 6.173000 # H HOH
275 92 1 0.000000 3.955000 14.047000 6.985000 # H HOH
276 92 2 0.000000 3.715000 15.017000 6.993000 # O HOH
277 93 1 0.000000 6.731000 16.427000 12.400000 # H HOH
278 93 1 0.000000 5.654000 15.939000 11.273000 # H HOH
279 93 2 0.000000 5.966000 15.810000 12.214000 # O HOH
280 94 1 0.000000 14.552000 5.987000 14.331000 # H HOH
281 94 1 0.000000 15.969000 6.090000 13.525000 # H HOH
282 94 2 0.000000 15.009000 6.370000 13.528000 # O HOH
283 95 1 0.000000 12.270000 5.029000 0.176000 # H HOH
284 95 1 0.000000 11.712000 3.510000 -0.042000 # H HOH
285 95 2 0.000000 11.449000 4.469000 0.064000 # O HOH
286 96 1 0.000000 13.794000 6.468000 2.309000 # H HOH
287 96 1 0.000000 14.511000 7.588000 3.257000 # H HOH
288 96 2 0.000000 14.626000 6.700000 2.813000 # O HOH
289 97 1 0.000000 13.886000 13.740000 6.700000 # H HOH
290 97 1 0.000000 15.386000 14.360000 6.520000 # H HOH
291 97 2 0.000000 14.859000 13.519000 6.637000 # O HOH
292 98 1 0.000000 3.142000 6.994000 5.530000 # H HOH
293 98 1 0.000000 4.406000 6.222000 4.842000 # H HOH
294 98 2 0.000000 3.515000 6.101000 5.277000 # O HOH
295 99 1 0.000000 8.791000 12.276000 2.824000 # H HOH
296 99 1 0.000000 9.643000 10.894000 2.644000 # H HOH
297 99 2 0.000000 9.701000 11.892000 2.670000 # O HOH
298 100 1 0.000000 14.978000 1.091000 16.785999 # H HOH
299 100 1 0.000000 16.548000 1.521000 16.919001 # H HOH
300 100 2 0.000000 15.604000 1.847000 16.975000 # O HOH
301 101 1 0.000000 7.406000 11.921000 10.113000 # H HOH
302 101 1 0.000000 6.363000 12.694000 11.105000 # H HOH
303 101 2 0.000000 6.681000 11.799000 10.791000 # O HOH
304 102 1 0.000000 0.666000 15.585000 8.371000 # H HOH
305 102 1 0.000000 0.114000 14.985000 6.956000 # H HOH
306 102 2 0.000000 0.065000 14.904000 7.951000 # O HOH
307 103 1 0.000000 2.327000 4.564000 13.081000 # H HOH
308 103 1 0.000000 2.682000 2.988000 13.320000 # H HOH
309 103 2 0.000000 1.944000 3.659000 13.266000 # O HOH
310 104 1 0.000000 12.807000 16.914000 6.109000 # H HOH
311 104 1 0.000000 14.243000 16.226999 6.471000 # H HOH
312 104 2 0.000000 13.800000 17.027000 6.068000 # O HOH
313 105 1 0.000000 10.021000 16.459999 8.061000 # H HOH
314 105 1 0.000000 9.437000 16.896999 6.600000 # H HOH
315 105 2 0.000000 10.169000 17.046000 7.264000 # O HOH
316 106 1 0.000000 10.038000 9.434000 7.713000 # H HOH
317 106 1 0.000000 11.597000 9.885000 7.894000 # H HOH
318 106 2 0.000000 10.990000 9.151000 7.591000 # O HOH
319 107 1 0.000000 6.901000 5.345000 11.466000 # H HOH
320 107 1 0.000000 8.522000 5.227000 11.314000 # H HOH
321 107 2 0.000000 7.712000 4.833000 11.747000 # O HOH
322 108 1 0.000000 7.901000 3.493000 5.512000 # H HOH
323 108 1 0.000000 9.039000 3.939000 6.595000 # H HOH
324 108 2 0.000000 8.329000 4.270000 5.974000 # O HOH
325 109 1 0.000000 11.002000 2.821000 6.164000 # H HOH
326 109 1 0.000000 11.137000 3.543000 4.706000 # H HOH
327 109 2 0.000000 11.277000 2.692000 5.211000 # O HOH
328 110 1 0.000000 12.705000 11.550000 11.436000 # H HOH
329 110 1 0.000000 11.923000 12.095000 12.762000 # H HOH
330 110 2 0.000000 12.421000 11.324000 12.368000 # O HOH
331 111 1 0.000000 10.445000 15.376000 9.909000 # H HOH
332 111 1 0.000000 10.239000 13.831000 9.424000 # H HOH
333 111 2 0.000000 10.908000 14.509000 9.726000 # O HOH
334 112 1 0.000000 7.923000 8.793000 7.979000 # H HOH
335 112 1 0.000000 7.166000 9.938000 8.865000 # H HOH
336 112 2 0.000000 7.524000 9.710000 7.960000 # O HOH
337 113 1 0.000000 8.411000 16.207001 3.543000 # H HOH
338 113 1 0.000000 8.956000 14.878000 4.320000 # H HOH
339 113 2 0.000000 8.147000 15.427000 4.111000 # O HOH
340 114 1 0.000000 7.290000 16.995001 1.803000 # H HOH
341 114 1 0.000000 5.698000 16.742001 2.067000 # H HOH
342 114 2 0.000000 6.569000 16.302999 1.849000 # O HOH
343 115 1 0.000000 11.548000 6.112000 8.345000 # H HOH
344 115 1 0.000000 10.756000 4.684000 8.372000 # H HOH
345 115 2 0.000000 11.178000 5.394000 8.935000 # O HOH
346 116 1 0.000000 7.603000 1.640000 1.381000 # H HOH
347 116 1 0.000000 7.114000 2.247000 2.816000 # H HOH
348 116 2 0.000000 7.718000 2.390000 2.033000 # O HOH
349 117 1 0.000000 9.278000 10.542000 5.359000 # H HOH
350 117 1 0.000000 10.847000 10.960000 5.189000 # H HOH
351 117 2 0.000000 9.904000 11.243000 5.017000 # O HOH
352 118 1 0.000000 13.365000 12.437000 1.806000 # H HOH
353 118 1 0.000000 12.522000 11.232000 1.096000 # H HOH
354 118 2 0.000000 12.503000 11.930000 1.811000 # O HOH
355 119 1 0.000000 7.348000 15.484000 7.812000 # H HOH
356 119 1 0.000000 8.760000 14.673000 7.933000 # H HOH
357 119 2 0.000000 8.187000 15.227000 7.331000 # O HOH
358 120 1 0.000000 15.578000 1.050000 7.155000 # H HOH
359 120 1 0.000000 14.369000 0.002000 7.481000 # H HOH
360 120 2 0.000000 14.609000 0.968000 7.390000 # O HOH
361 121 1 0.000000 4.612000 12.276000 13.718000 # H HOH
362 121 1 0.000000 6.118000 12.843000 13.995000 # H HOH
363 121 2 0.000000 5.573000 12.207000 13.450000 # O HOH
364 122 1 0.000000 13.837000 9.505000 0.710000 # H HOH
365 122 1 0.000000 12.759000 9.160000 1.887000 # H HOH
366 122 2 0.000000 13.651000 8.924000 1.502000 # O HOH
367 123 1 0.000000 11.339000 14.191000 5.578000 # H HOH
368 123 1 0.000000 11.026000 15.793000 5.633000 # H HOH
369 123 2 0.000000 11.691000 15.084000 5.862000 # O HOH
370 124 1 0.000000 4.218000 1.873000 0.003000 # H HOH
371 124 1 0.000000 4.455000 0.258000 0.009000 # H HOH
372 124 2 0.000000 4.457000 1.085000 0.570000 # O HOH
373 125 1 0.000000 1.716000 0.126000 8.230000 # H HOH
374 125 1 0.000000 2.547000 1.532000 8.209000 # H HOH
375 125 2 0.000000 2.627000 0.536000 8.185000 # O HOH
376 126 1 0.000000 4.892000 6.040000 14.123000 # H HOH
377 126 1 0.000000 4.965000 4.416000 13.966000 # H HOH
378 126 2 0.000000 4.354000 5.197000 14.090000 # O HOH
379 127 1 0.000000 4.246000 7.467000 3.034000 # H HOH
380 127 1 0.000000 4.762000 8.978000 2.692000 # H HOH
381 127 2 0.000000 3.957000 8.404000 2.840000 # O HOH
382 128 1 0.000000 9.880000 2.284000 10.083000 # H HOH
383 128 1 0.000000 8.310000 1.864000 9.924000 # H HOH
384 128 2 0.000000 9.195000 1.586000 10.295000 # O HOH
385 129 1 0.000000 10.240000 3.979000 2.738000 # H HOH
386 129 1 0.000000 9.965000 2.403000 3.064000 # H HOH
387 129 2 0.000000 9.534000 3.286000 2.881000 # O HOH
388 130 1 0.000000 0.197000 6.110000 6.174000 # H HOH
389 130 1 0.000000 0.054000 4.555000 6.650000 # H HOH
390 130 2 0.000000 0.404000 5.456000 6.902000 # O HOH
391 131 1 0.000000 12.065000 9.570000 10.047000 # H HOH
392 131 1 0.000000 13.698000 9.567000 10.079000 # H HOH
393 131 2 0.000000 12.881000 8.992000 10.070000 # O HOH
394 132 1 0.000000 15.636000 3.930000 4.075000 # H HOH
395 132 1 0.000000 16.615999 3.491000 5.306000 # H HOH
396 132 2 0.000000 16.424000 3.371000 4.332000 # O HOH
397 133 1 0.000000 5.519000 12.703000 0.005000 # H HOH
398 133 1 0.000000 5.040000 12.101000 1.445000 # H HOH
399 133 2 0.000000 4.787000 12.220000 0.485000 # O HOH
400 134 1 0.000000 6.135000 15.020000 5.515000 # H HOH
401 134 1 0.000000 6.637000 13.858000 6.546000 # H HOH
402 134 2 0.000000 5.861000 14.199000 6.016000 # O HOH
403 135 1 0.000000 14.223000 4.393000 15.860000 # H HOH
404 135 1 0.000000 13.021000 3.309000 16.073000 # H HOH
405 135 2 0.000000 13.970000 3.429000 15.783000 # O HOH
406 136 1 0.000000 7.478000 0.009000 15.723000 # H HOH
407 136 1 0.000000 6.091000 0.438000 14.976000 # H HOH
408 136 2 0.000000 6.980000 0.763000 15.295000 # O HOH
409 137 1 0.000000 16.052000 11.600000 14.336000 # H HOH
410 137 1 0.000000 16.523001 10.871000 12.953000 # H HOH
411 137 2 0.000000 16.819000 11.447000 13.713000 # O HOH
412 138 1 0.000000 16.868999 1.579000 9.461000 # H HOH
413 138 1 0.000000 16.107000 0.181000 9.098000 # H HOH
414 138 2 0.000000 16.997000 0.609000 9.252000 # O HOH
415 139 1 0.000000 6.236000 0.003000 3.476000 # H HOH
416 139 1 0.000000 5.304000 1.018000 2.599000 # H HOH
417 139 2 0.000000 5.936000 0.245000 2.553000 # O HOH
418 140 1 0.000000 1.178000 16.393000 15.910000 # H HOH
419 140 1 0.000000 2.661000 16.966999 16.283001 # H HOH
420 140 2 0.000000 1.917000 17.000000 15.616000 # O HOH
421 141 1 0.000000 4.233000 3.723000 1.187000 # H HOH
422 141 1 0.000000 2.846000 4.584000 1.224000 # H HOH
423 141 2 0.000000 3.240000 3.668000 1.291000 # O HOH
424 142 1 0.000000 14.510000 16.968000 3.976000 # H HOH
425 142 1 0.000000 12.888000 16.990999 3.785000 # H HOH
426 142 2 0.000000 13.678000 16.412001 3.983000 # O HOH
427 143 1 0.000000 15.015000 4.737000 0.982000 # H HOH
428 143 1 0.000000 15.884000 6.119000 1.024000 # H HOH
429 143 2 0.000000 15.160000 5.624000 0.544000 # O HOH
430 144 1 0.000000 1.590000 3.414000 11.006000 # H HOH
431 144 1 0.000000 2.800000 2.880000 10.048000 # H HOH
432 144 2 0.000000 2.065000 3.551000 10.137000 # O HOH
433 145 1 0.000000 3.054000 14.223000 2.609000 # H HOH
434 145 1 0.000000 2.692000 15.745000 2.143000 # H HOH
435 145 2 0.000000 2.711000 14.787000 1.858000 # O HOH
436 146 1 0.000000 2.122000 2.665000 15.642000 # H HOH
437 146 1 0.000000 1.032000 2.343000 16.813999 # H HOH
438 146 2 0.000000 1.153000 2.693000 15.886000 # O HOH
439 147 1 0.000000 4.340000 1.931000 14.424000 # H HOH
440 147 1 0.000000 4.227000 1.683000 16.034000 # H HOH
441 147 2 0.000000 4.410000 2.362000 15.323000 # O HOH
442 148 1 0.000000 2.105000 8.798000 1.570000 # H HOH
443 148 1 0.000000 1.951000 7.172000 1.576000 # H HOH
444 148 2 0.000000 1.651000 8.019000 1.138000 # O HOH
445 149 1 0.000000 15.806000 15.590000 0.002000 # H HOH
446 149 1 0.000000 17.000000 16.671000 0.275000 # H HOH
447 149 2 0.000000 16.792000 15.704000 0.132000 # O HOH
448 150 1 0.000000 0.021000 10.495000 12.775000 # H HOH
449 150 1 0.000000 1.189000 10.863000 13.856000 # H HOH
450 150 2 0.000000 0.996000 10.413000 12.984000 # O HOH

 Bonds

1 1 1 3
2 1 2 3
3 1 4 6
4 1 5 6
5 1 7 9
6 1 8 9
7 1 10 12
8 1 11 12
9 1 13 15
10 1 14 15
11 1 16 18
12 1 17 18
13 1 19 21
14 1 20 21
15 1 22 24
16 1 23 24
17 1 25 27
18 1 26 27
19 1 28 30
20 1 29 30
21 1 31 33
22 1 32 33
23 1 34 36
24 1 35 36
25 1 37 39
26 1 38 39
27 1 40 42
28 1 41 42
29 1 43 45
30 1 44 45
31 1 46 48
32 1 47 48
33 1 49 51
34 1 50 51
35 1 52 54
36 1 53 54
37 1 55 57
38 1 56 57
39 1 58 60
40 1 59 60
41 1 61 63
42 1 62 63
43 1 64 66
44 1 65 66
45 1 67 69
46 1 68 69
47 1 70 72
48 1 71 72
49 1 73 75
50 1 74 75
51 1 76 78
52 1 77 78
53 1 79 81
54 1 80 81
55 1 82 84
56 1 83 84
57 1 85 87
58 1 86 87
59 1 88 90
60 1 89 90
61 1 91 93
62 1 92 93
63 1 94 96
64 1 95 96
65 1 97 99
66 1 98 99
67 1 100 102
68 1 101 102
69 1 103 105
70 1 104 105
71 1 106 108
72 1 107 108
73 1 109 111
74 1 110 111
75 1 112 114
76 1 113 114
77 1 115 117
78 1 116 117
79 1 118 120
80 1 119 120
81 1 121 123
82 1 122 123
83 1 124 126
84 1 125 126
85 1 127 129
86 1 128 129
87 1 130 132
88 1 131 132
89 1 133 135
90 1 134 135
91 1 136 138
92 1 137 138
93 1 139 141
94 1 140 141
95 1 142 144
96 1 143 144
97 1 145 147
98 1 146 147
99 1 148 150
100 1 149 150
101 1 151 153
102 1 152 153
103 1 154 156
104 1 155 156
105 1 157 159
106 1 158 159
107 1 160 162
108 1 161 162
109 1 163 165
110 1 164 165
111 1 166 168
112 1 167 168
113 1 169 171
114 1 170 171
115 1 172 174
116 1 173 174
117 1 175 177
118 1 176 177
119 1 178 180
120 1 179 180
121 1 181 183
122 1 182 183
123 1 184 186
124 1 185 186
125 1 187 189
126 1 188 189
127 1 190 192
128 1 191 192
129 1 193 195
130 1 194 195
131 1 196 198
132 1 197 198
133 1 199 201
134 1 200 201
135 1 202 204
136 1 203 204
137 1 205 207
138 1 206 207
139 1 208 210
140 1 209 210
141 1 211 213
142 1 212 213
143 1 214 216
144 1 215 216
145 1 217 219
146 1 218 219
147 1 220 222
148 1 221 222
149 1 223 225
150 1 224 225
151 1 226 228
152 1 227 228
153 1 229 231
154 1 230 231
155 1 232 234
156 1 233 234
157 1 235 237
158 1 236 237
159 1 238 240
160 1 239 240
161 1 241 243
162 1 242 243
163 1 244 246
164 1 245 246
165 1 247 249
166 1 248 249
167 1 250 252
168 1 251 252
169 1 253 255
170 1 254 255
171 1 256 258
172 1 257 258
173 1 259 261
174 1 260 261
175 1 262 264
176 1 263 264
177 1 265 267
178 1 266 267
179 1 268 270
180 1 269 270
181 1 271 273
182 1 272 273
183 1 274 276
184 1 275 276
185 1 277 279
186 1 278 279
187 1 280 282
188 1 281 282
189 1 283 285
190 1 284 285
191 1 286 288
192 1 287 288
193 1 289 291
194 1 290 291
195 1 292 294
196 1 293 294
197 1 295 297
198 1 296 297
199 1 298 300
200 1 299 300
201 1 301 303
202 1 302 303
203 1 304 306
204 1 305 306
205 1 307 309
206 1 308 309
207 1 310 312
208 1 311 312
209 1 313 315
210 1 314 315
211 1 316 318
212 1 317 318
213 1 319 321
214 1 320 321
215 1 322 324
216 1 323 324
217 1 325 327
218 1 326 327
219 1 328 330
220 1 329 330
221 1 331 333
222 1 332 333
223 1 334 336
224 1 335 336
225 1 337 339
226 1 338 339
227 1 340 342
228 1 341 342
229 1 343 345
230 1 344 345
231 1 346 348
232 1 347 348
233 1 349 351
234 1 350 351
235 1 352 354
236 1 353 354
237 1 355 357
238 1 356 357
239 1 358 360
240 1 359 360
241 1 361 363
242 1 362 363
243 1 364 366
244 1 365 366
245 1 367 369
246 1 368 369
247 1 370 372
248 1 371 372
249 1 373 375
250 1 374 375
251 1 376 378
252 1 377 378
253 1 379 381
254 1 380 381
255 1 382 384
256 1 383 384
257 1 385 387
258 1 386 387
259 1 388 390
260 1 389 390
261 1 391 393
262 1 392 393
263 1 394 396
264 1 395 396
265 1 397 399
266 1 398 399
267 1 400 402
268 1 401 402
269 1 403 405
270 1 404 405
271 1 406 408
272 1 407 408
273 1 409 411
274 1 410 411
275 1 412 414
276 1 413 414
277 1 415 417
278 1 416 417
279 1 418 420
280 1 419 420
281 1 421 423
282 1 422 423
283 1 424 426
284 1 425 426
285 1 427 429
286 1 428 429
287 1 430 432
288 1 431 432
289 1 433 435
290 1 434 435
291 1 436 438
292 1 437 438
293 1 439 441
294 1 440 441
295 1 442 444
296 1 443 444
297 1 445 447
298 1 446 447
299 1 448 450
300 1 449 450

 Angles

1 1 1 3 2
2 1 4 6 5
3 1 7 9 8
4 1 10 12 11
5 1 13 15 14
6 1 16 18 17
7 1 19 21 20
8 1 22 24 23
9 1 25 27 26
10 1 28 30 29
11 1 31 33 32
12 1 34 36 35
13 1 37 39 38
14 1 40 42 41
15 1 43 45 44
16 1 46 48 47
17 1 49 51 50
18 1 52 54 53
19 1 55 57 56
20 1 58 60 59
21 1 61 63 62
22 1 64 66 65
23 1 67 69 68
24 1 70 72 71
25 1 73 75 74